15
Time Step: 0
C 12.75670626  5.02250233 12.10950595
C 29.1812545  43.17997677 22.37009572
C 62.84542616 20.53700191 21.06046272
C 35.22919535 15.72127593 10.50744462
C -3.20188447 11.13712722 15.91603866
C 65.98773179 44.85812511 25.46054767
C 57.20453405 12.69970019 44.72032089
C 62.71407438 41.62106997 33.88593827
C 56.83621256 63.66167044 12.65205084
C 25.95474858 60.52020177 14.56425738
C 18.62060406 63.00445494 -5.87905729
C 11.03090078 32.79646808 42.92335058
C 43.69897756 16.09583553  5.41757865
C 60.11019683  2.50746296 24.28173141
C  4.77994893 38.39462512 14.29105829
15
Time Step: 1
C 12.72106763  5.04196534 12.11984266
C 29.19187931 43.19059454 22.37973452
C 62.85122779 20.52026419 21.04284425
C 35.23237446 15.72187914 10.50620161
C -3.20087165 11.13099141 15.92459296
C 65.98934238 44.87088044 25.48088074
C 57.1989799  12.74153157 44.72528976
C 62.71284347 41.60557836 33.8602844 
C 56.82823867 63.64331002 12.67599087
C 25.94810188 60.48305121 14.53773789
C 18.62198193 62.97769197 -5.91421608
C 11.02688745 32.8047121  42.93237629
C 43.70310451 16.1165328   5.39293975
C 60.13783141  2.52931081 24.29397823
C  4.74566662 38.42445479 14.30119448
15
Time Step: 2
C 12.68070084  5.06751682 12.12842938
C 29.19887815 43.19700364 22.39199409
C 62.86021682 20.50680782 21.02963262
C 35.23629408 15.72046416 10.50133254
C -3.20495469 11.12604075 15.93529586
C 65.9900048  44.88441138 25.50164268
C 57.19325149 12.78333048 44.73200064
C 62.71569271 41.58917077 33.83106077
C 56.81530804 63.62000139 12.69523929
C 25.94433158 60.4526804  14.50754759
C 18.6248584  62.9490834  -5.94510899
C 11.02636442 32.81733364 42.9428044 
C 43.70859899 16.14199112  5.37214174
C 60.1653655   2.54918215 24.30650247
C  4.71157792 38.45554259 14.31392895
15
Time Step: 3
C 12.64232012  5.08804086 12.1324145 
C 29.20548869 43.19759735 22.4021374 
C 62.8711958  20.49906836 21.01509903
C 35.24013322 15.71968601 10.4930465 
C -3.20801929 11.12298716 15.94633572
C 65.99187418 44.8937672  25.52653405
C 57.18345715 12.83136385 44.73621926
C 62.71329789 41.57145267 33.79825677
C 56.80499412 63.5928429  12.71580767
C 25.94119207 60.42565138 14.47733593
C 18.62655468 62.92567712 -5.97086606
C 11.02809938 32.82710892 42.9506163 
C 43.70984523 16.16915476  5.34806437
C 60.19543713  2.56936    24.31808018
C  4.67951448 38.485193   14.32962759
15
Time Step: 4
C 12.59838882  5.09986384 12.13398386
C 29.21473089 43.19866569 22.41007448
C 62.87936485 20.49238083 20.99998707
C 35.23890469 15.71929448 10.48286367
C -3.21427272 11.12691638 15.95609951
C 65.9914361  44.90154331 25.55017896
C 57.17851369 12.87539801 44.73961027
C 62.71167991 41.55704165 33.76881133
C 56.79391458 63.56821845 12.73588544
C 25.93526201 60.3988952  14.44416934
C 18.63050598 62.90135121 -5.99416869
C 11.02381673 32.83808435 42.9623677 
C 43.71129324 16.19413373  5.32554931
C 60.22211041  2.58606023 24.33665851
C  4.64744593 38.51492908 14.34480439
15
Time Step: 5
C 12.55076566  5.11403892 12.13423054
C 29.22585248 43.19765828 22.40965021
C 62.88380009 20.48125417 20.98673041
C 35.24061024 15.72096005 10.472641  
C -3.21847581 11.12918786 15.96644239
C 65.99616963 44.90844208 25.57821786
C 57.17465783 12.9227831  44.73713213
C 62.70909403 41.54561029 33.74421545
C 56.78475194 63.54166935 12.74880561
C 25.92477666 60.37856963 14.40796267
C 18.6362417  62.87631491 -6.01901063
C 11.01885913 32.84974946 42.96974262
C 43.71786839 16.21741599  5.30495013
C 60.24648206  2.60627268 24.35861638
C  4.62162726 38.5482496  14.35959674
15
Time Step: 6
C 12.5041939   5.12474031 12.13485312
C 29.23581576 43.19185749 22.41190502
C 62.89117605 20.46292422 20.97301475
C 35.23832177 15.72478408 10.46481385
C -3.2228562  11.12688021 15.98001014
C 66.00359985 44.9208259  25.6036668 
C 57.17234621 12.97250629 44.7380292 
C 62.70287161 41.53582983 33.72437832
C 56.77856925 63.51492002 12.75775412
C 25.91731326 60.35627159 14.37739156
C 18.64740196 62.85294405 -6.04646857
C 11.01367494 32.86260451 42.97690586
C 43.72886341 16.24382348  5.29023441
C 60.26865667  2.63273678 24.37777574
C  4.59470977 38.5797775  14.37322129
15
Time Step: 7
C 12.46415718  5.13090885 12.13284841
C 29.24326569 43.18642959 22.41305917
C 62.901803   20.44161888 20.96287296
C 35.23308931 15.72379663 10.45664369
C -3.22550409 11.12899648 15.99838307
C 66.01398991 44.93480087 25.62597861
C 57.16953408 13.01729421 44.73596241
C 62.70014642 41.52665677 33.70757716
C 56.77074186 63.48406004 12.76747207
C 25.90671546 60.33447091 14.34702473
C 18.6607117  62.82587562 -6.07868839
C 11.0127665  32.87864285 42.98548678
C 43.74347558 16.26461735  5.27934687
C 60.28956077  2.65832348 24.39084085
C  4.57007681 38.61089527 14.3805251 
15
Time Step: 8
C 12.42242248  5.13502247 12.13085624
C 29.25152601 43.18307884 22.41105413
C 62.91296527 20.41341425 20.95410932
C 35.22958088 15.72309442 10.44533023
C -3.22457974 11.12997634 16.01874162
C 66.02353373 44.94762947 25.6487669 
C 57.16062319 13.06118322 44.73499276
C 62.69545351 41.51953785 33.68906057
C 56.76054185 63.45424244 12.78268065
C 25.89399276 60.31721133 14.31746741
C 18.6713231  62.80068319 -6.10624337
C 11.00891422 32.89669767 42.99874051
C 43.75618327 16.28294991  5.27399814
C 60.30779748  2.69001883 24.39877962
C  4.54499806 38.63665951 14.38439065
15
Time Step: 9
C 12.38261707  5.13491433 12.12858425
C 29.25681904 43.18182297 22.40917312
C 62.92700263 20.38423194 20.94090477
C 35.22427362 15.72388258 10.43679186
C -3.21989442 11.13287557 16.03272098
C 66.03745795 44.96184485 25.67465381
C 57.14947128 13.10308512 44.73958536
C 62.68893438 41.50844604 33.67525264
C 56.74374271 63.42216887 12.80391783
C 25.88336561 60.30321427 14.28744462
C 18.67499617 62.77413252 -6.12588544
C 11.00405107 32.91536252 43.00960537
C 43.77650546 16.30862991  5.26722729
C 60.32638363  2.71930074 24.40954023
C  4.51974344 38.66243045 14.386792  
15
Time Step: 10
C 12.3443548   5.13250674 12.13041395
C 29.26471565 43.17836152 22.4057186 
C 62.94252893 20.35767129 20.93293355
C 35.2169431  15.72360921 10.42257505
C -3.21896597 11.14008887 16.04364619
C 66.05422847 44.97031436 25.69849898
C 57.14100037 13.145963   44.74317156
C 62.68472785 41.50204948 33.6651278 
C 56.72345627 63.38957859 12.82297447
C 25.8773205  60.28759285 14.25387964
C 18.67928013 62.74829089 -6.13979911
C 10.99975539 32.93288752 43.01876212
C 43.80057325 16.33414343  5.25922192
C 60.34396532  2.74484233 24.41875415
C  4.49044659 38.68496826 14.38577974
15
Time Step: 11
C 12.30985456  5.1314502  12.13572137
C 29.27450852 43.17605006 22.39754264
C 62.951621   20.32960169 20.93102011
C 35.20777672 15.71819405 10.41332576
C -3.2254651  11.14316771 16.05244276
C 66.06852185 44.9777973  25.72273771
C 57.12939486 13.18956828 44.74677129
C 62.68098166 41.49593018 33.65234221
C 56.69978876 63.35737973 12.83879735
C 25.87586595 60.27044514 14.21855578
C 18.6894196  62.71734325 -6.14913564
C 10.98857261 32.95194483 43.03195036
C 43.82767598 16.35690222  5.25331634
C 60.36301954  2.76704015 24.42513168
C  4.45849016 38.70662287 14.38069179
15
Time Step: 12
C 12.26967482  5.12884032 12.13881305
C 29.2867522  43.17110606 22.39052525
C 62.96319904 20.30523793 20.92951584
C 35.19491185 15.71177362 10.4063394 
C -3.23107367 11.14191564 16.06015372
C 66.08727099 44.98655483 25.73988392
C 57.11633494 13.23595945 44.74468688
C 62.68383102 41.48870576 33.63891933
C 56.67116414 63.31906639 12.85371869
C 25.87734997 60.25679547 14.1880719 
C 18.69960263 62.68360156 -6.15844051
C 10.98346312 32.967739   43.04724862
C 43.85925294 16.37365833  5.24660391
C 60.38354692  2.78820395 24.43091104
C  4.42722685 38.73407967 14.37728859
15
Time Step: 13
C 12.23192473  5.12092197 12.14067528
C 29.29380943 43.16471709 22.38960749
C 62.9712632  20.28246254 20.92874752
C 35.17821858 15.70043415 10.40013499
C -3.23664837 11.13764983 16.06732291
C 66.11007695 44.99512993 25.76045864
C 57.10045762 13.28896339 44.74422015
C 62.69396482 41.48434188 33.62200638
C 56.64019245 63.27821268 12.86942309
C 25.88055029 60.24052914 14.15779121
C 18.71256518 62.65359183 -6.16902395
C 10.97732786 32.98463785 43.06578659
C 43.89051989 16.39133194  5.24232049
C 60.39908156  2.80909925 24.43235121
C  4.39857158 38.76419189 14.37203627
15
Time Step: 14
C 12.19343432  5.11637157 12.14807591
C 29.3007168  43.16167752 22.3958558 
C 62.97453322 20.25987505 20.92884936
C 35.16320924 15.68622712 10.39660327
C -3.24255918 11.12950608 16.07576945
C 66.13051527 45.00380891 25.77997126
C 57.08420382 13.34655849 44.74869638
C 62.70247152 41.47460727 33.60795743
C 56.60832645 63.23481366 12.88721617
C 25.88890675 60.21969998 14.12692665
C 18.72071906 62.6274591  -6.17635926
C 10.97161198 33.00041327 43.08015665
C 43.92232309 16.40664921  5.24449741
C 60.41745198  2.83007314 24.43029591
C  4.36645663 38.79750872 14.36563005
15
Time Step: 15
C 12.15109342  5.11567373 12.15088814
C 29.31194619 43.16107039 22.40170911
C 62.97657753 20.24065618 20.92891934
C 35.14339929 15.66775748 10.39420003
C -3.2518149  11.1223163  16.08176865
C 66.15361012 45.02085629 25.80337654
C 57.07201528 13.40862994 44.75192904
C 62.71414182 41.4630719  33.59923161
C 56.58093335 63.19733094 12.9042277 
C 25.89793612 60.19556934 14.0983822 
C 18.72386352 62.60392711 -6.18358596
C 10.96244926 33.01459297 43.10087251
C 43.95208216 16.42020224  5.24593138
C 60.43604958  2.84897668 24.42785341
C  4.33845559 38.8261546  14.35639618
15
Time Step: 16
C 12.11135749  5.11234809 12.148586  
C 29.32476207 43.16499549 22.40739375
C 62.98090455 20.21810441 20.93328513
C 35.12666862 15.65049768 10.38515523
C -3.25529324 11.12081968 16.08750707
C 66.17609775 45.03583516 25.82951978
C 57.05857912 13.46767262 44.7615688 
C 62.72766725 41.44895161 33.59370693
C 56.55822374 63.16006236 12.91704134
C 25.90174061 60.17667081 14.0730007 
C 18.72608061 62.58460883 -6.19237371
C 10.95570757 33.02497408 43.1242101 
C 43.9762341  16.43328712  5.25453376
C 60.45577914  2.86691953 24.42177567
C  4.31531855 38.85528349 14.34945854
15
Time Step: 17
C 12.06931093  5.10631451 12.14605589
C 29.33887492 43.16383833 22.41451446
C 62.98627745 20.19530163 20.9400526 
C 35.10557246 15.63515532 10.37853429
C -3.25673534 11.12409472 16.09516915
C 66.19669566 45.04761663 25.85462366
C 57.05045253 13.51977269 44.77114062
C 62.74475318 41.42871498 33.58401498
C 56.53651533 63.12125871 12.92527366
C 25.89659563 60.16525205 14.04998057
C 18.72595484 62.56484219 -6.19931644
C 10.94269321 33.03678326 43.14737491
C 44.00383826 16.44360484  5.26425258
C 60.47098391  2.88427026 24.4142194 
C  4.29183045 38.87895926 14.33940404
15
Time Step: 18
C 12.02822484  5.09997951 12.14289917
C 29.34699949 43.16160536 22.42234946
C 62.9888448  20.17483247 20.94300049
C 35.08208234 15.61591633 10.37053919
C -3.25859601 11.12365773 16.10419118
C 66.21094142 45.06116064 25.87644827
C 57.04475262 13.56314366 44.783497  
C 62.7626553  41.41147685 33.57829656
C 56.51305754 63.08002324 12.9277286 
C 25.89168739 60.15657884 14.03357949
C 18.73035933 62.54492274 -6.20477859
C 10.92644197 33.04787264 43.17790838
C 44.03692081 16.45249301  5.27350612
C 60.48656771  2.90235899 24.40589815
C  4.26740269 38.90055604 14.32635802
15
Time Step: 19
C 11.98416217  5.09749436 12.13451794
C 29.35468995 43.15364324 22.42761264
C 62.99526297 20.15812882 20.9478433 
C 35.05725714 15.59445918 10.36167221
C -3.25974257 11.12229819 16.11562585
C 66.22960929 45.06806521 25.89697256
C 57.04120923 13.6045887  44.79241314
C 62.77944553 41.39600154 33.57448175
C 56.48498495 63.04219262 12.92707489
C 25.88834215 60.14876727 14.02269275
C 18.73529271 62.53021484 -6.20760945
C 10.90779198 33.05658388 43.20966344
C 44.06649164 16.46062396  5.28337639
C 60.50417693  2.91944043 24.40367407
C  4.24258473 38.92167866 14.31081519
15
Time Step: 20
C 11.9349724   5.09573773 12.12528383
C 29.35890741 43.14341962 22.4316934 
C 63.00181354 20.13620596 20.95033653
C 35.02607407 15.57519787 10.34582321
C -3.25835599 11.12159433 16.13008648
C 66.25005895 45.07232361 25.91321322
C 57.04342495 13.64445479 44.79790345
C 62.79840252 41.38346637 33.57216517
C 56.45013989 63.00618592 12.930652  
C 25.89273987 60.14069958 14.0086412 
C 18.74546494 62.5177353  -6.21191255
C 10.88403913 33.0689576  43.23862576
C 44.09771733 16.46825525  5.29015166
C 60.52047461  2.93922318 24.40438508
C  4.21359413 38.93547097 14.29130231
15
Time Step: 21
C 11.88019028  5.09326467 12.1163997 
C 29.365068   43.13164548 22.43969246
C 63.00870997 20.11663936 20.94902291
C 34.99491367 15.5636313  10.32891698
C -3.25589947 11.11615098 16.14303448
C 66.27269238 45.0779173  25.92953048
C 57.04509009 13.68898901 44.80172114
C 62.81808406 41.3725498  33.5730331 
C 56.40959912 62.96780877 12.93108703
C 25.90383513 60.13000184 13.98844547
C 18.7570073  62.5063669  -6.21533148
C 10.86220562 33.08584045 43.26811157
C 44.12482075 16.48116978  5.29514922
C 60.53068688  2.95417369 24.40669163
C  4.18027697 38.94939951 14.26825118
15
Time Step: 22
C 11.82746824  5.09471326 12.11355992
C 29.36757333 43.11919526 22.44193744
C 63.01286221 20.09802796 20.94671259
C 34.96692286 15.55309012 10.31751352
C -3.25445099 11.11045126 16.15178538
C 66.29134949 45.08571196 25.95051954
C 57.04602564 13.73731339 44.80626106
C 62.83626783 41.3612206  33.57074113
C 56.37451467 62.92936003 12.93314052
C 25.91969871 60.11732397 13.96544301
C 18.76674834 62.48855698 -6.22177352
C 10.8401461  33.10669396 43.2967173 
C 44.1501257  16.49106174  5.30396796
C 60.53836071  2.96880714 24.41363307
C  4.14667694 38.96108516 14.24565425
15
Time Step: 23
C 11.77623356  5.09710688 12.10717489
C 29.36592556 43.1047221  22.44564448
C 63.01818963 20.07862258 20.94116037
C 34.93911717 15.53871663 10.30405865
C -3.25055138 11.10888711 16.15964902
C 66.30383344 45.09150762 25.97398108
C 57.04692424 13.79006564 44.81020243
C 62.85515495 41.34541925 33.56885538
C 56.34037995 62.89498426 12.93472168
C 25.93292641 60.10555747 13.94299553
C 18.77348175 62.47102433 -6.2330393 
C 10.81428253 33.12296329 43.32460178
C 44.17998927 16.50120967  5.31279426
C 60.54547237  2.98112316 24.41717487
C  4.1156549  38.9765875  14.22408919
15
Time Step: 24
C 11.71995527  5.10165902 12.09880849
C 29.36344048 43.09085476 22.44421563
C 63.02596082 20.06434084 20.93252697
C 34.91088305 15.52622598 10.28594976
C -3.2440274  11.10336219 16.16321921
C 66.31693672 45.09565867 25.9995972 
C 57.04853983 13.83805391 44.81889421
C 62.87136614 41.33510218 33.55880917
C 56.30025303 62.85866602 12.93059401
C 25.94581028 60.09556702 13.91971784
C 18.78436648 62.45482778 -6.24199788
C 10.79042221 33.13920642 43.35510698
C 44.21175097 16.50760298  5.32360869
C 60.55418572  2.99352689 24.41626351
C  4.08215953 38.99411237 14.20201546
15
Time Step: 25
C 11.66173001  5.10686858 12.08858696
C 29.36371258 43.06975372 22.43794164
C 63.03350762 20.0487529  20.92344784
C 34.8807443  15.51677236 10.26781694
C -3.23943643 11.09942765 16.15939744
C 66.32363602 45.1026376  26.02329716
C 57.05115639 13.88168648 44.82973429
C 62.88834765 41.32937334 33.5441734 
C 56.25953772 62.82430319 12.92769658
C 25.96223093 60.08494941 13.89913014
C 18.80006164 62.43832206 -6.25760116
C 10.76639024 33.15701499 43.38628209
C 44.23640015 16.51235565  5.33812337
C 60.5587479   3.00476332 24.41958938
C  4.05348377 39.00691341 14.18506959
15
Time Step: 26
C 11.59729531  5.11921507 12.07625262
C 29.37253469 43.05381544 22.42713992
C 63.04344538 20.0341961  20.91208214
C 34.85492333 15.50155093 10.25137906
C -3.24038261 11.09862878 16.15449032
C 66.32849819 45.10936531 26.04384388
C 57.05050129 13.92044897 44.83977869
C 62.90331683 41.31973589 33.53557521
C 56.2248961  62.78604473 12.92833754
C 25.9802252  60.07959729 13.8801666 
C 18.8129977  62.42223965 -6.27694898
C 10.74831938 33.17879109 43.41439411
C 44.26288692 16.51779549  5.34922235
C 60.56510234  3.01563779 24.42414399
C  4.02190906 39.019309   14.16600494
15
Time Step: 27
C 11.52994006  5.13100403 12.06300752
C 29.3822683  43.04700259 22.41380161
C 63.05312944 20.0166517  20.9000804 
C 34.83363407 15.49162036 10.23642673
C -3.24409031 11.09630784 16.14804172
C 66.32998315 45.11272677 26.06249531
C 57.05125217 13.96322476 44.84707853
C 62.92235061 41.31082096 33.52820035
C 56.19152723 62.74620219 12.92919855
C 25.99573888 60.07187332 13.86095767
C 18.82436099 62.40571389 -6.29617829
C 10.72980418 33.20334194 43.43911948
C 44.29683511 16.52448127  5.35922975
C 60.57163447  3.02671932 24.42460422
C  3.99259646 39.03603739 14.14703476
15
Time Step: 28
C 11.46836597  5.14219993 12.04670215
C 29.39476802 43.04230443 22.39391623
C 63.05880026 19.99714077 20.8886971 
C 34.80655811 15.48031985 10.21975258
C -3.25195568 11.09155994 16.14060567
C 66.33419972 45.11106883 26.08705452
C 57.05278186 14.00356692 44.85064265
C 62.93900401 41.30280137 33.5148879 
C 56.16533647 62.70747501 12.92753626
C 26.01122325 60.05974145 13.84613921
C 18.83471944 62.39289835 -6.32067234
C 10.7094605  33.22852892 43.46148017
C 44.33649036 16.52736537  5.37104142
C 60.57823745  3.03741315 24.4310068 
C  3.96558141 39.05307203 14.12645329
15
Time Step: 29
C 11.40695722  5.14716193 12.02759415
C 29.41291885 43.03649202 22.36903265
C 63.06577076 19.97840253 20.87085676
C 34.77980372 15.46612752 10.20256862
C -3.26281307 11.08693479 16.13212444
C 66.33697215 45.10594999 26.11320325
C 57.05293836 14.04444006 44.85986301
C 62.95270743 41.294836   33.50063241
C 56.14052809 62.67384431 12.92923181
C 26.02506419 60.04767619 13.82653567
C 18.8417031  62.37337826 -6.34728145
C 10.69015491 33.25595202 43.48268682
C 44.37119413 16.53194776  5.38233508
C 60.58511398  3.05004335 24.43409273
C  3.93708077 39.0637883  14.10360851
15
Time Step: 30
C 11.3431222   5.15535966 12.0143916 
C 29.42491151 43.031252   22.34941088
C 63.07017979 19.96589666 20.8505094 
C 34.7568136  15.45025676 10.18232969
C -3.27407505 11.0786416  16.12368864
C 66.33951537 45.09873536 26.1337195 
C 57.05921344 14.08056136 44.87278163
C 62.96712838 41.28625238 33.49418594
C 56.11543731 62.64342925 12.93503191
C 26.04134285 60.03181637 13.80537189
C 18.84812278 62.35559756 -6.36799176
C 10.67688167 33.27780598 43.50450453
C 44.40697974 16.53284097  5.38537572
C 60.594538    3.05985827 24.43329087
C  3.9119973  39.07627961 14.08625466
15
Time Step: 31
C 11.28543035  5.16825571 12.00032176
C 29.43362655 43.02861227 22.33152247
C 63.06985762 19.95219973 20.83028518
C 34.72961272 15.43743997 10.15981913
C -3.28682377 11.06853552 16.11132383
C 66.34042306 45.09914451 26.15800785
C 57.06781098 14.11215923 44.89021136
C 62.9786435  41.26945289 33.49276064
C 56.09035071 62.61220257 12.93666709
C 26.05744933 60.01932969 13.78491081
C 18.85545798 62.34005039 -6.3862101 
C 10.66491649 33.30105441 43.51927024
C 44.44105085 16.53450135  5.38379388
C 60.60006396  3.07017202 24.42942243
C  3.88763277 39.09003966 14.0684566 
15
Time Step: 32
C 11.22744556  5.17690867 11.98786075
C 29.44093602 43.0242676  22.31923721
C 63.06475403 19.94103523 20.80890967
C 34.69869837 15.41960861 10.13392428
C -3.29798004 11.05564036 16.10063913
C 66.33840536 45.09853709 26.18597821
C 57.07941092 14.13978734 44.90846511
C 62.99184388 41.25522533 33.48565353
C 56.0594565  62.58101727 12.94225216
C 26.07615571 60.01155493 13.75946814
C 18.86413116 62.32561444 -6.40386266
C 10.64611868 33.32832209 43.52901063
C 44.46832204 16.5335293   5.37866717
C 60.59803938  3.07690062 24.42318965
C  3.85837642 39.10516828 14.05299234
15
Time Step: 33
C 11.16647686  5.18253651 11.96890429
C 29.4475591  43.0244128  22.31115417
C 63.05795654 19.92729178 20.78499544
C 34.66856843 15.39880338 10.10826996
C -3.30999301 11.04548817 16.08680288
C 66.33536679 45.09546105 26.21177402
C 57.09598779 14.16234972 44.92533606
C 63.00702078 41.24282196 33.47393503
C 56.02447863 62.5558569  12.94948427
C 26.09898022 60.00607528 13.72864291
C 18.86779846 62.31643341 -6.41808382
C 10.62476592 33.35289995 43.54182953
C 44.49231747 16.53090419  5.37011174
C 60.5993414   3.07782656 24.40918171
C  3.82568575 39.12188547 14.03569794
15
Time Step: 34
C 11.10831454  5.18855662 11.95107131
C 29.45294934 43.0319509  22.30209912
C 63.05323907 19.91241662 20.76114768
C 34.63695167 15.37960373 10.07981628
C -3.32514984 11.0344443  16.07136276
C 66.32920484 45.09399662 26.23582636
C 57.11292778 14.18811129 44.94095117
C 63.01838494 41.23575208 33.46478333
C 55.99031819 62.53419108 12.95808652
C 26.12393666 60.00526256 13.69612432
C 18.86968135 62.30517416 -6.42923914
C 10.60444122 33.37643336 43.55096531
C 44.51442167 16.53178923  5.35972722
C 60.60600469  3.07478572 24.39252252
C  3.79713266 39.14167436 14.01775658
15
Time Step: 35
C 11.04780135  5.19807882 11.93282197
C 29.4548461  43.04277426 22.29168551
C 63.0457711  19.89681241 20.73157462
C 34.60197617 15.3549837  10.04777256
C -3.34126474 11.02227742 16.05595741
C 66.31919152 45.08826087 26.26462151
C 57.12536238 14.21580832 44.9561989 
C 63.03227396 41.23166648 33.45588258
C 55.96129219 62.50599282 12.97029105
C 26.13955839 60.01282718 13.67275007
C 18.86597784 62.29115062 -6.43689586
C 10.58997205 33.40346447 43.5610212 
C 44.52964714 16.52999971  5.35519553
C 60.61565763  3.07271366 24.38030415
C  3.7734619  39.15716297 13.99265842
15
Time Step: 36
C 10.99212916  5.20548565 11.9197302 
C 29.45757327 43.04861611 22.28662284
C 63.03644851 19.88177013 20.69888007
C 34.56963855 15.33194481 10.0176527 
C -3.36444723 11.01305029 16.03648282
C 66.30608058 45.0838104  26.29439366
C 57.13262189 14.2396551  44.96890284
C 63.04480755 41.22883547 33.44375858
C 55.93051169 62.48192242 12.98536963
C 26.14871617 60.01954643 13.65401805
C 18.85503533 62.27817634 -6.44317734
C 10.58085665 33.43334765 43.57180445
C 44.54214315 16.5309232   5.34850808
C 60.62537214  3.07071628 24.3748643 
C  3.74815815 39.16768512 13.9696014 
15
Time Step: 37
C 10.94003365  5.21278479 11.90919189
C 29.45928857 43.05568991 22.28316351
C 63.02958228 19.86414843 20.66295062
C 34.5375932  15.30829231  9.98551062
C -3.38676309 11.00238641 16.01480674
C 66.28729353 45.08255826 26.3223826 
C 57.14133581 14.25664225 44.97972788
C 63.05110098 41.22962013 33.42614556
C 55.90441282 62.46077819 12.99863598
C 26.15507651 60.02504483 13.62821824
C 18.84836612 62.26307056 -6.45351327
C 10.57751013 33.46133129 43.58416914
C 44.55495929 16.53638067  5.34593984
C 60.63785435  3.0695426  24.37371828
C  3.72355655 39.17330527 13.94841923
15
Time Step: 38
C 10.88505838  5.21896688 11.90090957
C 29.46104532 43.06334996 22.27687336
C 63.01642424 19.8422822  20.62305463
C 34.50800296 15.28255342  9.95570766
C -3.40720379 10.98860002 15.99574477
C 66.27242345 45.07878674 26.34986125
C 57.15355225 14.27114553 44.98257234
C 63.04934004 41.22660383 33.40195548
C 55.87954223 62.43779834 13.01105046
C 26.16151175 60.02474529 13.6047634 
C 18.84685911 62.24878846 -6.46644115
C 10.57570745 33.48508566 43.59540208
C 44.56299321 16.54269153  5.34544414
C 60.65774933  3.07177496 24.37162925
C  3.69922872 39.17272236 13.93205774
15
Time Step: 39
C 10.83603955  5.22475211 11.8935586 
C 29.46784317 43.07361531 22.27695606
C 63.00431472 19.81733506 20.57910016
C 34.48070775 15.25787102  9.92858136
C -3.42439446 10.97583001 15.98040941
C 66.25806819 45.07520242 26.36782494
C 57.16953601 14.28232963 44.98171751
C 63.04271469 41.22127089 33.38172994
C 55.85282502 62.42124882 13.02679326
C 26.16521202 60.02469686 13.58345895
C 18.84623068 62.23840603 -6.47726353
C 10.57171149 33.50892635 43.61008956
C 44.5691389  16.54861862  5.34750117
C 60.68139198  3.07358215 24.36731244
C  3.67823865 39.17274004 13.91353186
15
Time Step: 40
C 10.79475808  5.22839901 11.88875968
C 29.47385232 43.08928771 22.28360495
C 62.98649038 19.79832065 20.53986739
C 34.44930484 15.22843309  9.90491203
C -3.44131461 10.95945563 15.97020138
C 66.24570832 45.06942506 26.37814972
C 57.18592726 14.28844835 44.97718875
C 63.03234864 41.21536806 33.35779244
C 55.82947082 62.40041757 13.04585973
C 26.17599515 60.02613021 13.55965399
C 18.8497388  62.23019622 -6.48571287
C 10.56993313 33.53689212 43.6263929 
C 44.57171518 16.55963574  5.35358329
C 60.70148899  3.07174328 24.36298278
C  3.65884138 39.16900965 13.89028999
15
Time Step: 41
C 10.75615688  5.23068413 11.88187517
C 29.48353486 43.10075336 22.29464794
C 62.96662906 19.77998794 20.50224534
C 34.41756282 15.19078555  9.88349507
C -3.45458323 10.94407871 15.96363589
C 66.2318794  45.06379678 26.38461505
C 57.20643567 14.29106568 44.96964059
C 63.0238807  41.21757938 33.33418177
C 55.807977   62.37829251 13.05913918
C 26.19119288 60.02817144 13.54106158
C 18.85782433 62.21879754 -6.49013221
C 10.56775442 33.55992852 43.64420306
C 44.57006716 16.57611295  5.35319226
C 60.72481173  3.06343033 24.3641192 
C  3.63691508 39.16699596 13.86780247
15
Time Step: 42
C 10.71984395  5.22981422 11.87535114
C 29.49508963 43.10909537 22.30006852
C 62.95551907 19.76889788 20.46466381
C 34.37937905 15.15281593  9.86483156
C -3.47032276 10.92754469 15.96280494
C 66.22334217 45.05345621 26.3877347 
C 57.22938575 14.29223338 44.96195183
C 63.01371679 41.21691527 33.31109358
C 55.78630225 62.35318628 13.07364925
C 26.20448617 60.02592891 13.52574165
C 18.86880837 62.20765252 -6.49971699
C 10.56553236 33.57824234 43.6634932 
C 44.56260092 16.59307014  5.35230139
C 60.74387934  3.05824172 24.3677255 
C  3.6135773  39.1682783  13.84866095
15
Time Step: 43
C 10.6789629   5.22535287 11.86935626
C 29.50648874 43.11809114 22.30146835
C 62.94938491 19.75660652 20.42718408
C 34.34133602 15.11608913  9.84671657
C -3.48383316 10.91626824 15.97044685
C 66.21677295 45.04448665 26.38737738
C 57.25652537 14.29456792 44.9562608 
C 63.00380699 41.22030827 33.28714042
C 55.761549   62.32483613 13.08485953
C 26.21699429 60.02590273 13.50907595
C 18.87995194 62.18916725 -6.51220844
C 10.56109548 33.59252598 43.68685867
C 44.55514614 16.60668147  5.34864003
C 60.76347828  3.05161729 24.37159069
C  3.58549215 39.16315075 13.83371362
15
Time Step: 44
C 10.63636196  5.21930779 11.86520286
C 29.514819   43.12999352 22.30094247
C 62.94604054 19.74076208 20.39115815
C 34.30756767 15.08015932  9.83101885
C -3.49866485 10.90464906 15.9775951 
C 66.20866999 45.03149804 26.38537756
C 57.28632943 14.29468033 44.94387181
C 62.98959698 41.22729112 33.2665086 
C 55.74073984 62.29704084 13.09727516
C 26.22572906 60.02744674 13.49264776
C 18.88624443 62.16389433 -6.5230356 
C 10.5557254  33.60928918 43.71470463
C 44.55078809 16.61628687  5.34982188
C 60.77938241  3.04945371 24.37891408
C  3.55970547 39.15382828 13.81352761
15
Time Step: 45
C 10.58701827  5.214765   11.86159214
C 29.52865099 43.13751159 22.29690377
C 62.94496206 19.72861194 20.35240205
C 34.28106482 15.03812643  9.81286351
C -3.51429218 10.8958594  15.97937215
C 66.20244361 45.01461451 26.39028112
C 57.31658242 14.29515724 44.92615051
C 62.97467172 41.23243852 33.24344624
C 55.72370701 62.27401484 13.10884937
C 26.23143268 60.0321556  13.48101524
C 18.88575044 62.13894309 -6.52696151
C 10.55346067 33.63077907 43.7394471 
C 44.54809376 16.62280128  5.34817808
C 60.80351471  3.04680138 24.38928077
C  3.53811814 39.13601524 13.79375584
15
Time Step: 46
C 10.53529408  5.21114735 11.85358783
C 29.53970364 43.14831675 22.28944296
C 62.94578684 19.71347709 20.31523143
C 34.25164058 14.99778897  9.79126817
C -3.53144288 10.88273914 15.98254744
C 66.19840611 44.99951684 26.39203224
C 57.34908444 14.29611896 44.9062118 
C 62.95889193 41.24097667 33.21887519
C 55.71125678 62.25438175 13.11742391
C 26.23150463 60.03797545 13.4646783 
C 18.88572943 62.11249481 -6.52462264
C 10.55103129 33.65154854 43.76219692
C 44.54747799 16.6253639   5.33801849
C 60.82916188  3.04510468 24.39817976
C  3.52328958 39.11839772 13.77585024
15
Time Step: 47
C 10.48286638  5.20654558 11.84536294
C 29.55011349 43.16429002 22.27878373
C 62.94669274 19.69707621 20.27502221
C 34.22747609 14.95576597  9.77411014
C -3.55283923 10.86903331 15.98956635
C 66.19592779 44.99056358 26.39098398
C 57.37607956 14.29941647 44.88661771
C 62.95132195 41.25393459 33.1943829 
C 55.69738531 62.22982427 13.12327595
C 26.22717962 60.04429811 13.44260218
C 18.88313239 62.08939669 -6.52780413
C 10.55126913 33.67419594 43.78660468
C 44.54892656 16.62374427  5.32660111
C 60.85500359  3.04910738 24.41053428
C  3.51323924 39.09683437 13.76271028
15
Time Step: 48
C 10.42686089  5.20317878 11.83411921
C 29.56058    43.17957031 22.26846221
C 62.9450307  19.68143849 20.2363267 
C 34.20315805 14.91531852  9.75508489
C -3.56927416 10.85765066 15.99728713
C 66.19456222 44.98246166 26.38476482
C 57.40062237 14.30164179 44.86104243
C 62.94585367 41.26304989 33.16761382
C 55.68116476 62.20125182 13.12570393
C 26.22318145 60.05358315 13.42536108
C 18.87685296 62.06844713 -6.53153738
C 10.55327365 33.69404397 43.81347341
C 44.55536531 16.61849422  5.31522265
C 60.88410471  3.05657949 24.42505648
C  3.50486239 39.07315666 13.74623136
15
Time Step: 49
C 10.36809142  5.19797714 11.81897301
C 29.57216203 43.19616544 22.25548857
C 62.94783446 19.66165656 20.19868864
C 34.18069293 14.8784317   9.73266383
C -3.58815604 10.8433617  16.00094729
C 66.19001004 44.97748585 26.37876451
C 57.42697901 14.30423328 44.82865777
C 62.94019128 41.27030464 33.1444905 
C 55.66789765 62.17058254 13.12459072
C 26.22346775 60.06546426 13.40877881
C 18.87500916 62.04309735 -6.53501259
C 10.55778613 33.7121795  43.84443757
C 44.56430873 16.61642318  5.30570662
C 60.91705559  3.06451484 24.44255565
C  3.49349609 39.04901955 13.72702827
15
Time Step: 50
C 10.31342203  5.19180458 11.80692782
C 29.57801948 43.21236595 22.24354525
C 62.95700081 19.63568255 20.16611352
C 34.15830724 14.84578729  9.71122341
C -3.60638742 10.83619476 16.00156001
C 66.18929328 44.9765486  26.37717611
C 57.45618555 14.31230896 44.79011144
C 62.93477499 41.28336799 33.12394442
C 55.65659793 62.1432651  13.11627656
C 26.21878859 60.08006673 13.39372314
C 18.87845075 62.01757043 -6.54076389
C 10.55687934 33.72478597 43.87538216
C 44.576579   16.61710708  5.29678874
C 60.94995752  3.07171496 24.45818994
C  3.48184747 39.03016889 13.71035429
15
Time Step: 51
C 10.26057927  5.18150823 11.79602025