15
Time Step: 0
C 22.39807471 23.06565574 44.68907885
C 22.27069757 22.0431791  44.51549055
C 21.6700937  21.88252761 45.34074693
C 21.06241123 21.82809341 44.49884939
C 20.13023029 22.20419059 44.74359193
C 19.61188756 21.72131514 43.98150721
C 18.76617933 21.10449495 43.80744094
C 17.87049854 20.67513913 43.82460932
C 16.92229211 20.19544324 43.88642768
C 16.1813052  20.00607331 43.2479156 
C 16.69183787 19.19582821 42.75453144
C 16.82355953 18.55683993 41.97693559
C 17.22522844 18.64354107 41.00110709
C 18.06893123 19.20681692 41.17392376
C 18.88297176 18.98766107 41.75984966
15
Time Step: 1
C 22.40203397 23.09435123 44.69967963
C 22.26905767 22.04507872 44.52976386
C 21.66924691 21.87406743 45.36021224
C 21.06962749 21.81325702 44.5107056 
C 20.15157374 22.26609784 44.7520643 
C 19.63991628 21.70506676 43.98181998
C 18.73950224 21.13465556 43.82874651
C 17.87803148 20.67009697 43.82919041
C 16.9157747  20.18872471 43.8729686 
C 16.13535329 20.05403836 43.27396284
C 16.69099328 19.19070487 42.76013972
C 16.81188403 18.53606182 42.01660778
C 17.25496316 18.64360525 41.01811718
C 18.06531007 19.20216969 41.17409791
C 18.86932498 18.99372486 41.75620048
15
Time Step: 2
C 22.40500841 23.12504952 44.70960936
C 22.2655389  22.0513865  44.54354057
C 21.66476232 21.87100805 45.37883108
C 21.0770218  21.79892288 44.52119051
C 20.17133692 22.32699248 44.7617406 
C 19.66787316 21.68693774 43.97923298
C 18.72409141 21.16287835 43.85174586
C 17.88006358 20.65904642 43.83664714
C 16.91122589 20.18252957 43.86158034
C 16.09446227 20.09349554 43.29293985
C 16.69181477 19.19133104 42.77013329
C 16.79872212 18.50893294 42.05466448
C 17.2862421  18.64383605 41.03021509
C 18.06612701 19.20263231 41.17180276
C 18.85122539 19.00215393 41.75293945
15
Time Step: 3
C 22.41068402 23.14857066 44.71746239
C 22.26705338 22.06360843 44.55738631
C 21.65622519 21.87051595 45.39111135
C 21.08087087 21.77685709 44.53756198
C 20.19211444 22.38420312 44.77098638
C 19.69700527 21.66783791 43.97970871
C 18.71816905 21.19420887 43.87526336
C 17.87759622 20.64189431 43.8458104 
C 16.91556043 20.17617351 43.84915623
C 16.05492266 20.13331644 43.31168817
C 16.68842973 19.20112734 42.78258072
C 16.79032137 18.47746063 42.08406391
C 17.31231495 18.64286809 41.04605149
C 18.06610947 19.20503265 41.16550033
C 18.83477464 19.01150847 41.75265497
15
Time Step: 4
C 22.42162934 23.1695916  44.72486581
C 22.27201454 22.07351971 44.57257641
C 21.65758032 21.86121289 45.39648295
C 21.08219415 21.75463227 44.55642093
C 20.21707582 22.44235845 44.77619705
C 19.72567822 21.6474551  43.98066532
C 18.72019999 21.22984496 43.89342478
C 17.87629622 20.61869441 43.85346857
C 16.9217973  20.16937812 43.835631  
C 16.01639286 20.17348041 43.33136224
C 16.68046331 19.21532535 42.79892914
C 16.78176583 18.44099223 42.11092944
C 17.32915921 18.63816512 41.06670043
C 18.07009271 19.21266815 41.15242621
C 18.81798603 19.02323887 41.75461678
15
Time Step: 5
C 22.43794554 23.1867083  44.734913  
C 22.27501998 22.08756774 44.59522112
C 21.66059954 21.84999559 45.40360433
C 21.07927363 21.73713615 44.58029885
C 20.23919355 22.49398833 44.77589324
C 19.75222682 21.63258154 43.98248859
C 18.72152172 21.2642096  43.9063391 
C 17.87130972 20.59221823 43.85571903
C 16.9295779  20.16578717 43.82178697
C 15.97857352 20.20573013 43.35097951
C 16.66856514 19.23049217 42.82019339
C 16.77487483 18.40611395 42.13710386
C 17.33915422 18.62726827 41.08651839
C 18.08282199 19.22491925 41.13363576
C 18.80183506 19.02965193 41.76111418
15
Time Step: 6
C 22.45309643 23.19887804 44.7461898 
C 22.27690843 22.10200396 44.61718191
C 21.66159614 21.84351534 45.41074546
C 21.07848162 21.72373205 44.60068671
C 20.26123121 22.5401595  44.77306928
C 19.78142226 21.61389373 43.98451816
C 18.7187659  21.29048259 43.92033702
C 17.86920761 20.56789041 43.8556424 
C 16.94256997 20.16291697 43.80682827
C 15.94301745 20.22969746 43.37128236
C 16.64866932 19.25031214 42.84083132
C 16.76690944 18.37765693 42.16455693
C 17.34171031 18.60827088 41.10761324
C 18.09576089 19.24125278 41.11630991
C 18.78294426 19.03228526 41.76383562
15
Time Step: 7
C 22.46850066 23.20838985 44.75090815
C 22.28237311 22.12201052 44.63980251
C 21.66288453 21.83547669 45.41882604
C 21.08081895 21.71505847 44.62306876
C 20.27807133 22.57552285 44.76631261
C 19.81398737 21.5984744  43.98558228
C 18.71158702 21.32002321 43.93330361
C 17.87399675 20.54316841 43.86082618
C 16.95091466 20.16293058 43.78970367
C 15.91328117 20.24826747 43.39360306
C 16.62346949 19.27269089 42.86956364
C 16.76314698 18.34854969 42.19251172
C 17.33540316 18.58096634 41.13548571
C 18.11089352 19.26260949 41.10171755
C 18.76977048 19.03360999 41.76551876
15
Time Step: 8
C 22.48368198 23.2169321  44.75665153
C 22.28389331 22.14344023 44.66175028
C 21.66212516 21.82797163 45.42872404
C 21.08286101 21.70772846 44.63769495
C 20.29412232 22.60788696 44.75647348
C 19.84065018 21.58493086 43.98870364
C 18.70801525 21.3452525  43.94851327
C 17.87669818 20.52202904 43.86898113
C 16.95592137 20.16062255 43.76927182
C 15.88696664 20.25789766 43.41075173
C 16.60053888 19.28858874 42.90223866
C 16.75801993 18.3217669  42.22216973
C 17.32988714 18.54977866 41.16323541
C 18.11962202 19.28151177 41.08659066
C 18.76019963 19.03977814 41.77199592
15
Time Step: 9
C 22.49764907 23.22385731 44.76037636
C 22.28335866 22.17069142 44.68098   
C 21.66585623 21.82403539 45.43889609
C 21.08282743 21.69982558 44.64831556
C 20.311065   22.63239006 44.74370096
C 19.86456886 21.57976446 43.99030093
C 18.70534773 21.36853321 43.96429706
C 17.88627079 20.50458637 43.87738692
C 16.95621026 20.16158093 43.75203504
C 15.86885775 20.2632664  43.42389085
C 16.57088054 19.30062969 42.9368405 
C 16.75721704 18.29671036 42.2525742 
C 17.32260986 18.51433162 41.19389483
C 18.12797833 19.30297798 41.06970246
C 18.75735198 19.04468    41.78690266
15
Time Step: 10
C 22.5076413  23.23168791 44.76605554
C 22.28232536 22.1993942  44.70072252
C 21.66894592 21.81706871 45.45673262
C 21.07694579 21.69787501 44.65703304
C 20.32842034 22.64771139 44.72556182
C 19.89228507 21.58224679 43.99437893
C 18.70136861 21.38960888 43.98244782
C 17.89978314 20.4910372  43.88985384
C 16.94618411 20.16219255 43.73870492
C 15.85130189 20.26929897 43.43727536
C 16.53772322 19.31347187 42.96992763
C 16.76221834 18.2772898  42.284185  
C 17.31183258 18.48120135 41.22444755
C 18.13496901 19.32155589 41.05266723
C 18.76262487 19.04705303 41.80111353
15
Time Step: 11
C 22.51944769 23.24074809 44.77340127
C 22.27549936 22.22603261 44.71553754
C 21.67191457 21.80700318 45.47084975
C 21.07064143 21.69266547 44.67015817
C 20.34590466 22.65174117 44.7020954 
C 19.91355688 21.58659048 44.00425771
C 18.69844533 21.4115462  44.00588681
C 17.91329981 20.48407271 43.90789682
C 16.9306542  20.17047633 43.72361604
C 15.83736899 20.27210179 43.45038622
C 16.50061162 19.32970812 42.99803455
C 16.76393751 18.26927106 42.31772489
C 17.30251086 18.45336134 41.25384282
C 18.13559498 19.34223226 41.03552075
C 18.77202294 19.05361665 41.81866716
15
Time Step: 12
C 22.52752916 23.25139659 44.77767439
C 22.26124191 22.2488568  44.72730731
C 21.67306181 21.79730331 45.48583983
C 21.0601712  21.68623306 44.68509098
C 20.36412425 22.65290231 44.67803693
C 19.92920383 21.59973931 44.01289054
C 18.70510564 21.43226326 44.02603255
C 17.9233915  20.48409066 43.9272435 
C 16.91504863 20.17857757 43.70414341
C 15.82980175 20.26944781 43.46235129
C 16.46829225 19.34549961 43.02262072
C 16.7680743  18.2665849  42.34857089
C 17.29726798 18.43066709 41.28778841
C 18.12940609 19.36357115 41.02292899
C 18.78123172 19.06162553 41.83658021
15
Time Step: 13
C 22.53774624 23.26726749 44.77990023
C 22.24237032 22.27684146 44.7346974 
C 21.67617618 21.79267519 45.49733811
C 21.04908855 21.67801785 44.69408394
C 20.3882298  22.65113452 44.65938552
C 19.94002714 21.61690808 44.02620359
C 18.71568127 21.44497213 44.04700986
C 17.93621078 20.49275068 43.94933469
C 16.89241784 20.18552653 43.68246362
C 15.82417306 20.26912985 43.47206081
C 16.43496298 19.35358154 43.04574906
C 16.77492445 18.26913659 42.37715932
C 17.29455079 18.4133381  41.31823147
C 18.12212977 19.37932791 41.01493751
C 18.78621661 19.06951441 41.8542794 
15
Time Step: 14
C 22.5459098  23.28551787 44.77642705
C 22.22488832 22.30153946 44.74106183
C 21.68034333 21.79302135 45.50407429
C 21.03168998 21.66979808 44.70485233
C 20.4103583  22.64011073 44.64236073
C 19.94857529 21.6320002  44.0435617 
C 18.72283965 21.45052594 44.07063361
C 17.94657837 20.50042088 43.97006311
C 16.87012775 20.19153754 43.66591179
C 15.82178469 20.27045272 43.48194382
C 16.39923589 19.35677528 43.06344915
C 16.78466256 18.27806922 42.40931898
C 17.29669391 18.39988714 41.35097907
C 18.10926672 19.38791027 41.01184796
C 18.79343781 19.08171361 41.86522979
15
Time Step: 15
C 22.55335057 23.30596419 44.77420287
C 22.20500737 22.33045866 44.74285871
C 21.67632949 21.79486972 45.50554187
C 21.01035923 21.6661492  44.72131667
C 20.42817385 22.62233239 44.61921507
C 19.95897971 21.65324732 44.06742572
C 18.73047621 21.45516704 44.09934798
C 17.96248943 20.50672587 43.99183571
C 16.85430251 20.19925544 43.65158592
C 15.82809718 20.26998656 43.49267626
C 16.35658819 19.36024887 43.07907899
C 16.79634513 18.29190409 42.4354202 
C 17.29570326 18.39624171 41.38437689
C 18.09967759 19.3927841  41.01169955
C 18.79796351 19.09972233 41.8682193 
15
Time Step: 16
C 22.55935268 23.32326927 44.7701232 
C 22.18517861 22.36264636 44.73900759
C 21.67024209 21.79684531 45.50751065
C 20.98855766 21.66598206 44.7406286 
C 20.4420662  22.60155783 44.59409587
C 19.97228997 21.68209476 44.09603542
C 18.73987324 21.46027694 44.12313779
C 17.97579846 20.51536966 44.01312999
C 16.84802906 20.21322613 43.64517752
C 15.83882716 20.27036285 43.50304576
C 16.31890251 19.36377582 43.09499249
C 16.80764234 18.31414848 42.46511386
C 17.30300123 18.3978215  41.41315931
C 18.08644222 19.38555492 41.01697667
C 18.80223162 19.11933276 41.86731009
15
Time Step: 17
C 22.56677766 23.34084421 44.76284615
C 22.16177713 22.39515248 44.73871236
C 21.65709937 21.80032554 45.5087908 
C 20.969286   21.66497738 44.75905253
C 20.45051945 22.58165688 44.5700198 
C 19.98761994 21.71627628 44.1263269 
C 18.74579235 21.46444936 44.14318164
C 17.98655514 20.52053836 44.03618945
C 16.84840239 20.22920379 43.64241969
C 15.85157927 20.26445851 43.51421066
C 16.28808043 19.36752331 43.11150406
C 16.81509756 18.34675368 42.49837705
C 17.31554022 18.39829284 41.4438158 
C 18.07074998 19.37078375 41.02544997
C 18.80354679 19.13907866 41.86232441
15
Time Step: 18
C 22.58172493 23.35212857 44.75328776
C 22.14021723 22.42129447 44.73771002
C 21.64060893 21.81036234 45.51476394
C 20.9551372  21.66534081 44.77069742
C 20.46277209 22.55584252 44.55029905
C 19.99706828 21.7500897  44.15782423
C 18.75538648 21.46817014 44.16200433
C 18.00053159 20.52537508 44.0582955 
C 16.85592983 20.24979018 43.63597499
C 15.85738419 20.25258658 43.52204693
C 16.25847897 19.36728651 43.1261844 
C 16.81830222 18.38165888 42.53758491
C 17.3264422  18.39814994 41.47414434
C 18.05395893 19.35735121 41.03544769
C 18.80753719 19.16247    41.8584149 
15
Time Step: 19
C 22.60078656 23.36265089 44.744263  
C 22.11495084 22.44308159 44.74287063
C 21.62133703 21.8225003  45.51458905
C 20.93787496 21.66165591 44.77887212
C 20.47703954 22.53071599 44.53676908
C 20.00106741 21.78190926 44.19161773
C 18.75902802 21.4735101  44.17908183
C 18.01268852 20.53488726 44.08002773
C 16.87383548 20.27386459 43.6240257 
C 15.85672689 20.24539749 43.53037959
C 16.23048764 19.36322296 43.13358314
C 16.82129537 18.41663867 42.57282705
C 17.33634817 18.40154223 41.50977315
C 18.03982202 19.33953397 41.05173301
C 18.81025256 19.18614277 41.85226984
15
Time Step: 20
C 22.62192706 23.37126269 44.73353188
C 22.0848897  22.46431403 44.75577644
C 21.60875176 21.83591954 45.51724705
C 20.92586161 21.65796296 44.79041888
C 20.48957724 22.50584828 44.52818844
C 19.99853306 21.80876419 44.22297719
C 18.75897381 21.47935403 44.19785742
C 18.02283821 20.54533123 44.10431645
C 16.89529469 20.30199625 43.61262876
C 15.85908258 20.23929426 43.53668069
C 16.20249124 19.35620983 43.14191939
C 16.83064231 18.45268048 42.60172461
C 17.34416922 18.40232273 41.55051077
C 18.02796488 19.31619415 41.0710734 
C 18.80923653 19.2108715  41.85068447
15
Time Step: 21
C 22.63801003 23.37366708 44.71646763
C 22.05375361 22.48747235 44.76970652
C 21.60328589 21.84989042 45.52382517
C 20.91335547 21.65192709 44.80466072
C 20.51331288 22.49550385 44.52045025
C 19.98052855 21.82344435 44.25474726
C 18.76177444 21.48557904 44.21560843
C 18.02709506 20.55618393 44.13055112
C 16.91970945 20.32888579 43.6049848 
C 15.85992495 20.23784026 43.54400503
C 16.17857735 19.34063326 43.1452879 
C 16.84007637 18.48647489 42.62913527
C 17.34807578 18.40620324 41.59556963
C 18.01412098 19.28601594 41.09885867
C 18.80573754 19.23355312 41.85647024
15
Time Step: 22
C 22.65563255 23.37577859 44.69638375
C 22.01921018 22.50291605 44.78548312
C 21.60426644 21.87095955 45.53249041
C 20.89770747 21.64446521 44.81706615
C 20.54706747 22.50641123 44.52017765
C 19.94144732 21.82260003 44.27905582
C 18.77007428 21.48837423 44.23745682
C 18.03250245 20.56689742 44.15323734
C 16.94832054 20.35399807 43.59862201
C 15.86639175 20.22836532 43.55751077
C 16.15823021 19.32232352 43.14530182
C 16.84628916 18.51931865 42.65920888
C 17.35140223 18.41429641 41.64476102
C 17.99506668 19.25289077 41.13479474
C 18.7991115  19.25993825 41.86675106
15
Time Step: 23
C 22.66858552 23.37280413 44.67957235
C 21.98651745 22.51833041 44.79708006
C 21.60825308 21.8981583  45.5414855 
C 20.88122748 21.63236413 44.83592028
C 20.58421362 22.52530002 44.51952059
C 19.88993512 21.81995482 44.30615486
C 18.77900308 21.49079911 44.25818159
C 18.0343887  20.57236814 44.18158968
C 16.98363589 20.37368211 43.60135837
C 15.87913855 20.21764821 43.5782442 
C 16.14596356 19.30517614 43.1427369 
C 16.84724877 18.55300273 42.68441209
C 17.34870173 18.41985937 41.69461776
C 17.97058024 19.21823506 41.1725879 
C 18.78635969 19.28724626 41.88045177
15
Time Step: 24
C 22.67985884 23.36905732 44.66232156
C 21.95066247 22.53580004 44.80510546
C 21.61740949 21.92887974 45.55258213
C 20.86826784 21.61631472 44.85521862
C 20.61557809 22.5425165  44.52052152
C 19.83509738 21.81420438 44.33198486
C 18.78994063 21.48590606 44.27790588
C 18.03318324 20.58122381 44.21201781
C 17.01504431 20.39407407 43.6067929 
C 15.89466142 20.20782623 43.60439017
C 16.13786647 19.28395328 43.1391118 
C 16.84645964 18.58753358 42.70562503
C 17.34120381 18.42779659 41.7516189 
C 17.94151425 19.18969496 41.20609843
C 18.7674563  19.31155834 41.89651109
15
Time Step: 25
C 22.69128443 23.35907165 44.64789418
C 21.91560699 22.55280456 44.80945717
C 21.62342989 21.96123826 45.56539134
C 20.85410143 21.59394718 44.87678414
C 20.64052948 22.55998939 44.52038461
C 19.78680988 21.81032314 44.3585841 
C 18.80363592 21.47608314 44.2886258 
C 18.03428279 20.58855819 44.2416342 
C 17.04597183 20.41496021 43.60946114
C 15.91757595 20.19487494 43.62433459
C 16.12894872 19.2589513  43.13891788
C 16.84039469 18.61763889 42.72069824
C 17.3387911  18.43980888 41.81049241
C 17.91514161 19.16477687 41.24487879
C 18.74805351 19.33754475 41.91114248
15
Time Step: 26
C 22.69805645 23.35091775 44.63102781
C 21.88201832 22.5717184  44.81466472
C 21.62678474 21.99129132 45.58091884
C 20.84181427 21.57762649 44.8969393 
C 20.66509788 22.57558356 44.52343111
C 19.74107997 21.81008077 44.38751247
C 18.81363855 21.46478236 44.30188966
C 18.03691358 20.59549088 44.27145133
C 17.07714527 20.43603835 43.609894  
C 15.9384343  20.1815059  43.64740885
C 16.12023321 19.23185805 43.1367672 
C 16.83201182 18.64719363 42.7289177 
C 17.34250247 18.45105412 41.87038833
C 17.89141429 19.14323456 41.28747828
C 18.72391694 19.36611952 41.92526924
15
Time Step: 27
C 22.70321535 23.34086003 44.61026853
C 21.84756108 22.59075288 44.81356833
C 21.62483205 22.02117996 45.59531228
C 20.83022978 21.55884445 44.91477546
C 20.68484172 22.59374539 44.5279997 
C 19.70526024 21.81257171 44.40904835
C 18.82022958 21.45243599 44.31961725
C 18.03982077 20.60249672 44.30112782
C 17.10871876 20.46172064 43.60739868
C 15.95586941 20.17175385 43.6721455 
C 16.11539792 19.21189623 43.13969515
C 16.82508834 18.67442672 42.7341356 
C 17.34721328 18.46383325 41.92917228
C 17.87268068 19.11820114 41.33298247
C 18.70022455 19.39049374 41.93975234
15
Time Step: 28
C 22.70651453 23.33060996 44.58976885
C 21.81803807 22.61723817 44.81180202
C 21.62163764 22.04680127 45.60666578
C 20.82134989 21.54655723 44.932327  
C 20.7026861  22.60883819 44.53568731
C 19.67750644 21.82068504 44.43273354
C 18.82160703 21.43279845 44.3375134 
C 18.03977691 20.61124186 44.32501326
C 17.14368501 20.49023902 43.60348362
C 15.97421465 20.16059168 43.69342725
C 16.10857882 19.19334699 43.14889506
C 16.82122241 18.70381309 42.74149765
C 17.35241943 18.47291635 41.98553091
C 17.85624131 19.0971251  41.37417336
C 18.67905642 19.41271857 41.95597052
15
Time Step: 29
C 22.70864319 23.32161317 44.56749554
C 21.79484994 22.64413258 44.80947703
C 21.61072874 22.07294037 45.61222795
C 20.81393158 21.536765   44.9488639 
C 20.71259119 22.61674496 44.54098154
C 19.65600148 21.83299502 44.46031823
C 18.81553298 21.40948121 44.34682124
C 18.03478917 20.61732563 44.34678825
C 17.17776615 20.51702906 43.59551436
C 15.99432319 20.14525723 43.71695322
C 16.10040896 19.17491868 43.16164466
C 16.81867723 18.73583387 42.74978055
C 17.3606895  18.47877845 42.03865358
C 17.83995622 19.07942591 41.41679284
C 18.66148468 19.43407305 41.96779022
15
Time Step: 30
C 22.71217129 23.3103781  44.54774034
C 21.77590481 22.66742525 44.80667215
C 21.60309796 22.0935356  45.62263856
C 20.81589751 21.5323051  44.96377189
C 20.71200145 22.61701385 44.5535227 
C 19.64270331 21.85015375 44.48759788
C 18.79709248 21.38278222 44.35224957
C 18.02410517 20.62624848 44.36248405
C 17.20881538 20.54084253 43.59138448
C 16.01657083 20.12398982 43.73759611
C 16.0830401  19.15794701 43.17610263
C 16.82343163 18.76167554 42.75826723
C 17.37565912 18.48269097 42.08004149
C 17.82050337 19.06127291 41.45583286
C 18.64862907 19.45074245 41.97927363
15
Time Step: 31
C 22.71598694 23.29603205 44.52938652
C 21.76473117 22.69015348 44.80160963
C 21.59047334 22.11678844 45.63929727
C 20.81966179 21.53356777 44.97278018
C 20.70863959 22.60919959 44.57109871
C 19.6374533  21.86540995 44.51358547
C 18.76855717 21.3535192  44.35106073
C 18.01738733 20.64080885 44.37200767
C 17.23683285 20.56565567 43.59625055
C 16.04735028 20.10127061 43.76076393
C 16.06075135 19.14551639 43.19299659
C 16.82319797 18.78461606 42.76944456
C 17.39472365 18.47813763 42.11266701
C 17.80639572 19.04261806 41.4894187 
C 18.63717049 19.46359507 41.98534399
15
Time Step: 32
C 22.71416135 23.27818065 44.50839763
C 21.75265216 22.70966748 44.79717001
C 21.57963953 22.14191999 45.65385587
C 20.82239978 21.5464557  44.98123003
C 20.70462181 22.59216008 44.58670825
C 19.63905339 21.88038685 44.54197581
C 18.73580527 21.32250027 44.34709452
C 18.01056476 20.65826045 44.38103935
C 17.26092326 20.58827139 43.60165453
C 16.08717015 20.08236184 43.78794414
C 16.03860577 19.1393744  43.21405885
C 16.8168947  18.8097109  42.78750654
C 17.41224994 18.46381796 42.13680378
C 17.80071228 19.02510792 41.51423532
C 18.62051892 19.47320595 41.99495268
15
Time Step: 33
C 22.70857875 23.26036943 44.48569124
C 21.74231931 22.73489783 44.79588353
C 21.57073171 22.16873495 45.66181081
C 20.82805909 21.56198238 44.99462882
C 20.69270605 22.56838527 44.60025134
C 19.6462714  21.89480776 44.57454586
C 18.70772121 21.29183935 44.34619953
C 17.99839836 20.6749363  44.38304907
C 17.28143985 20.61332076 43.60777062
C 16.1307431  20.06423829 43.81283807
C 16.01954831 19.1450939  43.24046074
C 16.81508937 18.83632342 42.805886  
C 17.424381   18.44908387 42.15900281
C 17.80373728 19.01771765 41.53478595
C 18.60130287 19.48253421 42.01099104
15
Time Step: 34
C 22.70681925 23.24441311 44.46353571
C 21.73946524 22.76428273 44.79787654
C 21.55748976 22.1919234  45.66796288
C 20.83591361 21.58727786 45.00952036
C 20.67841404 22.53791275 44.61215578
C 19.65314582 21.90908872 44.60198767
C 18.68643514 21.26946776 44.34147531
C 17.98276896 20.68314115 44.38417397
C 17.2977521  20.63997042 43.61958367
C 16.17318214 20.04968939 43.83583062
C 16.0014241  19.16170531 43.26705733
C 16.81421306 18.86245739 42.82589303
C 17.43522987 18.4289582  42.17878456
C 17.80780306 19.01831907 41.54709623
C 18.58172736 19.49443042 42.02385303
15
Time Step: 35
C 22.70331253 23.22739079 44.44342736
C 21.73517282 22.79298683 44.80240594
C 21.54217211 22.21034657 45.67508638
C 20.84540361 21.61489162 45.02920895
C 20.66055941 22.50720228 44.61626589
C 19.65677738 21.92733628 44.63045395
C 18.68223954 21.25917224 44.3395338 
C 17.96361917 20.68123677 44.38594727
C 17.30167717 20.6626     43.62974806
C 16.21703424 20.03927435 43.85312412
C 15.98369338 19.18173758 43.29731292
C 16.81377266 18.8848824  42.84262158
C 17.44399621 18.40584563 42.2018666 
C 17.81390992 19.02940361 41.55012027
C 18.5640135  19.50234281 42.03707103
15
Time Step: 36
C 22.70554098 23.20881505 44.41978152
C 21.72919657 22.82154845 44.81175141
C 21.51965325 22.22332484 45.68381434
C 20.85811482 21.63515819 45.04866698
C 20.64086385 22.47775161 44.61658679
C 19.66240407 21.94148341 44.65466522
C 18.69259125 21.2594012  44.33481135
C 17.94177514 20.67470373 44.39226195
C 17.30142154 20.69059215 43.63690179
C 16.26463645 20.02798121 43.86356693
C 15.95962577 19.19576482 43.32822982
C 16.81824511 18.90567511 42.86247405
C 17.45100986 18.38022654 42.2227409 
C 17.82204011 19.04157752 41.5453444 
C 18.5449912  19.50188108 42.05396123
15
Time Step: 37
C 22.70993847 23.18894099 44.38940924
C 21.72339658 22.85100529 44.82875412
C 21.49691199 22.23166514 45.68981477
C 20.87552298 21.65345953 45.07319456
C 20.62124533 22.45097907 44.6175535 
C 19.6695554  21.94918867 44.67013227
C 18.71319879 21.26618361 44.32622087
C 17.91824283 20.6676147  44.40129677
C 17.29947271 20.71386078 43.64094252
C 16.31731585 20.01857322 43.8726881 
C 15.93165736 19.20929747 43.35442124
C 16.81853207 18.92487936 42.88402333
C 17.45486366 18.35555389 42.23984447
C 17.82686236 19.04910894 41.54001446
C 18.53416554 19.50047844 42.07257335
15
Time Step: 38
C 22.71220476 23.16547312 44.35514587
C 21.71604672 22.88072877 44.84244993
C 21.47057535 22.2357098  45.69453925
C 20.89278138 21.66437862 45.10255714
C 20.59497417 22.42801242 44.61020057
C 19.67176886 21.95644329 44.68649431
C 18.73236506 21.2778451  44.32080405
C 17.89933158 20.66267201 44.40859535
C 17.29547303 20.73629802 43.63957663
C 16.36685133 20.00951696 43.87871945
C 15.91050446 19.224872   43.37573055
C 16.82079782 18.94328932 42.90029556
C 17.4604187  18.33501297 42.25434154
C 17.8258162  19.05181827 41.52966045
C 18.52249269 19.50403798 42.08877437
15
Time Step: 39
C 22.71415619 23.13950663 44.32081295
C 21.71518987 22.90973794 44.85519857
C 21.44325147 22.24296897 45.69989993
C 20.91473778 21.67155329 45.12694577
C 20.56661805 22.40811826 44.60213178
C 19.67125113 21.96034385 44.70634146
C 18.7537948  21.28772924 44.31837236
C 17.88541725 20.65574908 44.41676108
C 17.28587629 20.75122944 43.63247856
C 16.41384294 20.00467094 43.88118581
C 15.88781703 19.23700735 43.3982253 
C 16.83069283 18.95341176 42.91082311
C 17.46462957 18.32108994 42.26289164
C 17.82338171 19.05648471 41.51838533
C 18.51042357 19.50690801 42.10419268
15
Time Step: 40
C 22.71270237 23.11765308 44.28498643
C 21.71711363 22.94161817 44.86727121
C 21.41340602 22.25551794 45.71094641
C 20.940031   21.6731216  45.15626451
C 20.53707978 22.38584598 44.59599097
C 19.66005468 21.96149943 44.72722358
C 18.77519377 21.29723057 44.3128773 
C 17.88251558 20.65017587 44.43163856
C 17.26731928 20.7638497  43.62737746
C 16.46644612 19.9953838  43.88873669
C 15.86542906 19.24492849 43.42049491
C 16.8436482  18.95630712 42.92008165
C 17.46869166 18.31732488 42.26774031
C 17.82038245 19.05311316 41.51274845
C 18.49808563 19.51058316 42.12558653
15
Time Step: 41
C 22.71273818 23.09462313 44.24835902
C 21.72328643 22.96924279 44.87544534
C 21.38506493 22.2700045  45.7287159 
C 20.95706996 21.66462595 45.18814285
C 20.50953649 22.36293413 44.58939407
C 19.64307752 21.96230553 44.74527493
C 18.79697907 21.30408922 44.30407038
C 17.8850143  20.64330078 44.44867172
C 17.24467467 20.77928224 43.62596398
C 16.52208195 19.98280555 43.89503226
C 15.8477675  19.25882059 43.44530367
C 16.85907358 18.96227591 42.92734435
C 17.47072109 18.31834562 42.27312909
C 17.81502324 19.04575376 41.51057943
C 18.4849647  19.51224049 42.14451895
15
Time Step: 42
C 22.70524379 23.06522353 44.21337075
C 21.73719855 22.9956603  44.88668157
C 21.35868932 22.29777276 45.75116958
C 20.96828326 21.64763683 45.21905577
C 20.47971951 22.33957468 44.58329424
C 19.61673229 21.96279882 44.76505035
C 18.81235271 21.30932107 44.29165847
C 17.8860161  20.63486376 44.46517274
C 17.22631351 20.79334391 43.62550828
C 16.58043524 19.9753433  43.89471877
C 15.83448939 19.27510029 43.47234948
C 16.86920558 18.97271165 42.93690112
C 17.46776966 18.32090307 42.27504575
C 17.8059351  19.03617743 41.51037826
C 18.46824666 19.51774716 42.15697593
15
Time Step: 43
C 22.69692158 23.03427022 44.17798888
C 21.7525249  23.01478304 44.90024514
C 21.3347837  22.33771305 45.77114262
C 20.97973105 21.6194862  45.24937526
C 20.45770562 22.32145974 44.58173745
C 19.58830837 21.96565466 44.78180117
C 18.82899333 21.31977063 44.27753372
C 17.88948084 20.63279187 44.47465789
C 17.21034105 20.80702081 43.62280905
C 16.63507229 19.96958423 43.89009848
C 15.82724352 19.2906815  43.4986924 
C 16.87540423 18.97832504 42.94736601
C 17.45906886 18.32749742 42.27606078
C 17.79608368 19.01904936 41.51256279
C 18.45447868 19.5251198  42.16659944
15
Time Step: 44
C 22.68534803 23.00529005 44.14761182
C 21.76433031 23.02630505 44.9177231 
C 21.30968754 22.38525417 45.79668923
C 20.98727132 21.58985019 45.27468567
C 20.44722568 22.30001727 44.58580429
C 19.55422979 21.96247454 44.8015068 
C 18.84284232 21.33130865 44.2661198 
C 17.89452764 20.63823645 44.48391937
C 17.19453891 20.82100046 43.62380174
C 16.68548466 19.96244324 43.87710823
C 15.82709811 19.31009236 43.51878557
C 16.87787736 18.98043018 42.95773517
C 17.44470896 18.33423956 42.28255135
C 17.78230289 19.00239043 41.51699829
C 18.4342258  19.52894235 42.18109907
15
Time Step: 45
C 22.67189806 22.97683245 44.11857591
C 21.77639117 23.03856736 44.93503317
C 21.28468302 22.42739596 45.81963564
C 20.99759669 21.56132546 45.30100187
C 20.44012772 22.28036393 44.59106448
C 19.51587361 21.95761119 44.82442134
C 18.85690995 21.34664679 44.25044689
C 17.90501444 20.65274264 44.49453622
C 17.18533441 20.83758368 43.63166658
C 16.73492107 19.94714027 43.86565048
C 15.8302886  19.32795242 43.5320612 
C 16.88036534 18.98117722 42.97448153
C 17.43077813 18.34462496 42.29621357
C 17.76430801 18.98547547 41.52434772
C 18.4108862  19.53577254 42.19657078
15
Time Step: 46
C 22.6493724  22.94892573 44.08928388
C 21.78406034 23.05409923 44.94510579
C 21.26570128 22.46657293 45.83114046
C 21.01215962 21.53801041 45.32906599
C 20.43678249 22.25641061 44.59170375
C 19.48398094 21.95499806 44.84403289
C 18.86260178 21.36353683 44.23447039
C 17.92011788 20.66985482 44.49836834
C 17.18044907 20.85298465 43.64662133
C 16.78008844 19.92780911 43.85361764
C 15.84457265 19.34193763 43.54782728
C 16.87940908 18.98115092 42.99056297
C 17.4165809  18.35704685 42.30820143
C 17.74521547 18.96290764 41.53400062
C 18.38505686 19.54327217 42.21524135
15
Time Step: 47
C 22.62385434 22.91983908 44.06627801
C 21.7947285  23.07234065 44.95848356
C 21.25646383 22.5054209  45.84105001
C 21.02287032 21.51978635 45.35541475
C 20.43490304 22.22807332 44.59365514
C 19.45158736 21.94873801 44.86547538
C 18.86068802 21.37997097 44.22821932
C 17.93916324 20.69201838 44.49640368
C 17.18026741 20.87017809 43.66078229
C 16.81819175 19.90918771 43.84285686
C 15.86501761 19.35540601 43.56071022
C 16.88329301 18.98246594 43.00974972
C 17.39774093 18.37103715 42.31789929
C 17.72756238 18.94656933 41.53922047
C 18.36617305 19.55490709 42.23244022
15
Time Step: 48
C 22.59641689 22.89202861 44.04190957
C 21.80752162 23.08915649 44.97973235
C 21.25453679 22.54532146 45.84975298
C 21.03368419 21.50258613 45.37337286
C 20.43424831 22.19705454 44.59684884
C 19.42011997 21.94086974 44.88876137
C 18.85892099 21.39423538 44.22910341
C 17.95971315 20.71591267 44.48917016
C 17.18676531 20.88567705 43.67019743
C 16.85242766 19.88890758 43.8348792 
C 15.88739602 19.36601025 43.5685113 
C 16.88270336 18.98997635 43.03711201
C 17.37562114 18.39256816 42.32107976
C 17.72027343 18.92825275 41.54317157
C 18.34500887 19.57330539 42.25281722
15
Time Step: 49
C 22.5683553  22.86406522 44.02052409
C 21.81924401 23.10244732 45.0048885 
C 21.25139724 22.5790152  45.85804064
C 21.04951958 21.49229792 45.38322996
C 20.42659324 22.17012275 44.59966443
C 19.38510363 21.93109701 44.91284642
C 18.86194955 21.39985038 44.23568535
C 17.9791738  20.73681186 44.47783967
C 17.19342517 20.898838   43.68012809
C 16.87711231 19.86960221 43.82579414
C 15.90912736 19.37336599 43.57252932
C 16.87936633 18.99678859 43.06687718
C 17.35162027 18.40968668 42.3257435 
C 17.71880316 18.91017121 41.54949415
C 18.31932392 19.59195667 42.26467983
15
Time Step: 50
C 22.54156884 22.83397858 44.00302584
C 21.82601859 23.10845345 45.03137112
C 21.24887717 22.60373572 45.86541717
C 21.06781125 21.48804883 45.39338299
C 20.41975313 22.14734281 44.60691631
C 19.34875418 21.92426565 44.93681142
C 18.8614407  21.40178508 44.24762399
C 18.00073508 20.76152611 44.4660849 
C 17.20295001 20.9083472  43.68772477
C 16.89707106 19.85129339 43.80900317
C 15.93463707 19.38375598 43.57206114
C 16.86762589 19.00526925 43.09752013
C 17.32171098 18.42251061 42.33383915
C 17.72238558 18.88910053 41.55649477
C 18.29555302 19.60282563 42.27158939
15
Time Step: 51
C 22.50891919 22.8035531  43.99003833